####################################################################### Data is provided by the Chemical Database Service# Database specific disclaimer will appear here......######################################################################data_1513335-COD_journal_volume_journal_page_first_journal_name_full ''_journal_yearloop__publ_author_name_chemical_formula_moiety;;_chemical_name_systematic;;_cell_length_a     8.233_cell_length_b    10.070_cell_length_c    14.865_cell_angle_alpha    90.000_cell_angle_beta   102.530_cell_angle_gamma    90.000#_symmetry_Int_tables_number  14loop__symmetry_equiv_pos_site_id_symmetry_equiv_pos_as_xyz  1 X,Y,Z#  2 1/2+X,1/2-Y,1/2+Z#  3 -X,-Y,-Z#  4 1/2-X,1/2+Y,1/2-Zloop__atom_site_label_atom_site_type_symbol_atom_site_symmetry_multiplicity_atom_site_fract_x_atom_site_fract_y_atom_site_fract_z_atom_site_occupancyC1    C    4   0.85760   0.18250   0.09440   1.00000C1    C    4   0.14240   0.81750   0.90560   1.00000C1    C    4   0.35760   0.31750   0.59440   1.00000C1    C    4   0.64240   0.68250   0.40560   1.00000C2    C    4   0.21760   0.13110   0.34010   1.00000C2    C    4   0.78240   0.86890   0.65990   1.00000C2    C    4   0.71760   0.36890   0.84010   1.00000C2    C    4   0.28240   0.63110   0.15990   1.00000C3    C    4   0.51830   0.14980   0.40450   1.00000C3    C    4   0.48170   0.85020   0.59550   1.00000C3    C    4   0.01830   0.35020   0.90450   1.00000C3    C    4   0.98170   0.64980   0.09550   1.00000C4    C    4   0.53490   0.25070   0.33270   1.00000C4    C    4   0.46510   0.74930   0.66730   1.00000C4    C    4   0.03490   0.24930   0.83270   1.00000C4    C    4   0.96510   0.75070   0.16730   1.00000C5    C    4   0.39280   0.25160   0.24910   1.00000C5    C    4   0.60720   0.74840   0.75090   1.00000C5    C    4   0.89280   0.24840   0.74910   1.00000C5    C    4   0.10720   0.75160   0.25090   1.00000C6    C    4   0.81310   0.29850   0.13190   1.00000C6    C    4   0.18690   0.70150   0.86810   1.00000C6    C    4   0.31310   0.20150   0.63190   1.00000C6    C    4   0.68690   0.79850   0.36810   1.00000C7    C    4   0.65760   0.35390   0.10200   1.00000C7    C    4   0.34240   0.64610   0.89800   1.00000C7    C    4   0.15760   0.14610   0.60200   1.00000C7    C    4   0.84240   0.85390   0.39800   1.00000C8    C    4   0.54760   0.28710   0.03320   1.00000C8    C    4   0.45240   0.71290   0.96680   1.00000C8    C    4   0.04760   0.21290   0.53320   1.00000C8    C    4   0.95240   0.78710   0.46680   1.00000C9    C    4   0.59270   0.16980   0.99610   1.00000C9    C    4   0.40730   0.83020   0.00390   1.00000C9    C    4   0.09270   0.33020   0.49610   1.00000C9    C    4   0.90730   0.66980   0.50390   1.00000C10   C    4   0.74880   0.11640   0.02630   1.00000C10   C    4   0.25120   0.88360   0.97370   1.00000C10   C    4   0.24880   0.38360   0.52630   1.00000C10   C    4   0.75120   0.61640   0.47370   1.00000C11   C    4   0.03140   0.15190   0.14240   1.00000C11   C    4   0.96860   0.84810   0.85760   1.00000C11   C    4   0.53140   0.34810   0.64240   1.00000C11   C    4   0.46860   0.65190   0.35760   1.00000C12   C    4   0.95340   0.34290   0.20600   1.00000C12   C    4   0.04660   0.65710   0.79400   1.00000C12   C    4   0.45340   0.15710   0.70600   1.00000C12   C    4   0.54660   0.84290   0.29400   1.00000C13   C    4   0.22980   0.25080   0.27950   1.00000C13   C    4   0.77020   0.74920   0.72050   1.00000C13   C    4   0.72980   0.24920   0.77950   1.00000C13   C    4   0.27020   0.75080   0.22050   1.00000H1    H    4   0.64400   0.23690   0.31760   1.00000H1    H    4   0.35600   0.76310   0.68240   1.00000H1    H    4   0.14400   0.26310   0.81760   1.00000H1    H    4   0.85600   0.73690   0.18240   1.00000H2    H    4   0.53570   0.33400   0.36750   1.00000H2    H    4   0.46430   0.66600   0.63250   1.00000H2    H    4   0.03570   0.16600   0.86750   1.00000H2    H    4   0.96430   0.83400   0.13250   1.00000H3    H    4   0.39400   0.33610   0.21400   1.00000H3    H    4   0.60600   0.66390   0.78600   1.00000H3    H    4   0.89400   0.16390   0.71400   1.00000H3    H    4   0.10600   0.83610   0.28600   1.00000H4    H    4   0.40120   0.15990   0.20650   1.00000H4    H    4   0.59880   0.84010   0.79350   1.00000H4    H    4   0.90120   0.34010   0.70650   1.00000H4    H    4   0.09880   0.65990   0.29350   1.00000H5    H    4   0.35500   0.03960   0.43970   1.00000H5    H    4   0.64500   0.96040   0.56030   1.00000H5    H    4   0.85500   0.46040   0.93970   1.00000H5    H    4   0.14500   0.53960   0.06030   1.00000H6    H    4   0.63070   0.43890   0.12960   1.00000H6    H    4   0.36930   0.56110   0.87040   1.00000H6    H    4   0.13070   0.06110   0.62960   1.00000H6    H    4   0.86930   0.93890   0.37040   1.00000H7    H    4   0.43710   0.32790   0.00940   1.00000H7    H    4   0.56290   0.67210   0.99060   1.00000H7    H    4   0.93710   0.17210   0.50940   1.00000H7    H    4   0.06290   0.82790   0.49060   1.00000H8    H    4   0.50530   0.12930   0.94740   1.00000H8    H    4   0.49470   0.87070   0.05260   1.00000H8    H    4   0.00530   0.37070   0.44740   1.00000H8    H    4   0.99470   0.62930   0.55260   1.00000H9    H    4   0.78620   0.04720   0.00180   1.00000H9    H    4   0.21380   0.95280   0.99820   1.00000H9    H    4   0.28620   0.45280   0.50180   1.00000H9    H    4   0.71380   0.54720   0.49820   1.00000H10   H    4   0.22900   0.33770   0.31650   1.00000H10   H    4   0.77100   0.66230   0.68350   1.00000H10   H    4   0.72900   0.16230   0.81650   1.00000H10   H    4   0.27100   0.83770   0.18350   1.00000N1    N    4   0.08230   0.25410   0.20510   1.00000N1    N    4   0.91770   0.74590   0.79490   1.00000N1    N    4   0.58230   0.24590   0.70510   1.00000N1    N    4   0.41770   0.75410   0.29490   1.00000N2    N    4   0.36310   0.09600   0.39970   1.00000N2    N    4   0.63690   0.90400   0.60030   1.00000N2    N    4   0.86310   0.40400   0.89970   1.00000N2    N    4   0.13690   0.59600   0.10030   1.00000O1    O    4   0.11610   0.05710   0.13270   1.00000O1    O    4   0.88390   0.94290   0.86730   1.00000O1    O    4   0.61610   0.44290   0.63270   1.00000O1    O    4   0.38390   0.55710   0.36730   1.00000O2    O    4   0.96040   0.43510   0.25890   1.00000O2    O    4   0.03960   0.56490   0.74110   1.00000O2    O    4   0.46040   0.06490   0.75890   1.00000O2    O    4   0.53960   0.93510   0.24110   1.00000O3    O    4   0.08910   0.07410   0.34030   1.00000O3    O    4   0.91090   0.92590   0.65970   1.00000O3    O    4   0.58910   0.42590   0.84030   1.00000O3    O    4   0.41090   0.57410   0.15970   1.00000O4    O    4   0.63420   0.11580   0.46490   1.00000O4    O    4   0.36580   0.88420   0.53510   1.00000O4    O    4   0.13420   0.38420   0.96490   1.00000O4    O    4   0.86580   0.61580   0.03510   1.00000